 Gaussian 09, Revision D.01,
 Gaussian 09:  EM64L-G09RevD.01 24-Apr-2013

 -----------------------------------------------------
 #P b3lyp/gen opt(tight) integral(Grid=ultrafine) freq
 -----------------------------------------------------

  from Gaussian 09/GAMESS https://www.basissetexchange.org/basis/6-31++
 g_st__st_/format/gaussian94/?version=1&elements=1,6,7,8
 ----------------------------------------------------------------------
 Symbolic Z-matrix:
 Charge =  0 Multiplicity = 1

 SCF Done:  E(RB3LYP) =  -986.135689495     A.U. after   21 cycles
 SCF Done:  E(RB3LYP) =  -986.135646573     A.U. after   13 cycles
 SCF Done:  E(RB3LYP) =  -986.135652263     A.U. after   12 cycles
 SCF Done:  E(RB3LYP) =  -986.135655861     A.U. after   16 cycles
 SCF Done:  E(RB3LYP) =  -986.135656607     A.U. after   12 cycles
 SCF Done:  E(RB3LYP) =  -986.135656835     A.U. after   10 cycles
 SCF Done:  E(RB3LYP) =  -986.135656870     A.U. after   10 cycles
 SCF Done:  E(RB3LYP) =  -986.135656890     A.U. after    8 cycles
 SCF Done:  E(RB3LYP) =  -986.135656897     A.U. after    7 cycles
 SCF Done:  E(RB3LYP) =  -986.135656898     A.U. after    7 cycles
 SCF Done:  E(RB3LYP) =  -986.135656898     A.U. after    5 cycles
 Optimization completed.
    -- Stationary point found.
 Normal termination of Gaussian 09 at Sat Feb  5 14:52:26 2022.

 ------------------------------------------------------------------
 #P Geom=AllCheck Guess=TCheck SCRF=Check GenChk RB3LYP/ChkBas Freq
 ------------------------------------------------------------------

 6-31++G** 6-31G + diffuse and polarization functions on all atoms Data
  from Gaussian 09/GAMESS https://www.basissetexchange.org/basis/6-31++
 g_st__st_/format/gaussian94/?version=1&elements=1,6,7,8
 ----------------------------------------------------------------------
 Charge =  0 Multiplicity = 1

                         Standard orientation:
 ---------------------------------------------------------------------
 Center     Atomic      Atomic             Coordinates (Angstroms)
 Number     Number       Type             X           Y           Z
 ---------------------------------------------------------------------
      1          6           0       -4.555922   -0.630553   -0.000006
      2          6           0       -3.892318    0.625537    0.000004
      3          6           0       -3.790271   -1.806924   -0.000017
      4          1           0       -4.296185   -2.766255   -0.000025
      5          6           0       -2.496952    0.681864    0.000004
      6          6           0       -2.400713   -1.742217   -0.000017
      7          1           0       -1.988357    1.637838    0.000012
      8          1           0       -1.804484   -2.648758   -0.000027
      9          6           0       -1.741760   -0.503020   -0.000006
     10          6           0       -4.638116    1.852287    0.000012
     11          7           0       -5.213905    2.863018    0.000019
     12          6           0       -5.985150   -0.717253   -0.000008
     13          7           0       -7.144248   -0.822509   -0.000010
     14          7           0       -0.324763   -0.553106   -0.000010
     15          7           0        0.226482    0.587924    0.000015
     16          6           0        3.387274    2.382865   -0.000002
     17          6           0        2.037671    2.015443    0.000012
     18          6           0        1.618664    0.682565    0.000010
     19          6           0        2.615101   -0.372164    0.000006
     20          6           0        4.001655    0.007467   -0.000004
     21          6           0        4.357226    1.394860   -0.000014
     22          6           0        5.014226   -0.984921   -0.000002
     23          6           0        4.684597   -2.325106    0.000011
     24          6           0        3.328251   -2.708153    0.000022
     25          6           0        2.318722   -1.760912    0.000018
     26          1           0        6.051422   -0.670457   -0.000011
     27          1           0        5.465750   -3.079354    0.000014
     28          1           0        3.066656   -3.762613    0.000034
     29          1           0        1.284500   -2.068083    0.000022
     30          1           0        3.668531    3.432853   -0.000004
     31          1           0        1.266480    2.778424    0.000023
     32          8           0        5.685518    1.679128   -0.000031
     33          1           0        5.823483    2.636089   -0.000029
 ---------------------------------------------------------------------

 SCF Done:  E(RB3LYP) =  -986.135656898     A.U. after    2 cycles

 The electronic state is 1-A.
 Alpha  occ. eigenvalues --  -19.22765 -14.40619 -14.39738 -14.35843 -14.35818
 Alpha  occ. eigenvalues --  -10.29723 -10.26982 -10.26782 -10.25891 -10.24578
 Alpha  occ. eigenvalues --  -10.24568 -10.24566 -10.24056 -10.23591 -10.23292
 Alpha  occ. eigenvalues --  -10.23255 -10.22939 -10.22873 -10.22255 -10.21517
 Alpha  occ. eigenvalues --  -10.21456 -10.21328 -10.20642  -1.11173  -1.05402
 Alpha  occ. eigenvalues --   -0.93607  -0.92096  -0.90992  -0.89883  -0.86076
 Alpha  occ. eigenvalues --   -0.83690  -0.80965  -0.79695  -0.77628  -0.76693
 Alpha  occ. eigenvalues --   -0.71953  -0.68637  -0.67586  -0.65153  -0.64242
 Alpha  occ. eigenvalues --   -0.61804  -0.60132  -0.57434  -0.56325  -0.53729
 Alpha  occ. eigenvalues --   -0.53277  -0.52624  -0.50891  -0.48403  -0.47777
 Alpha  occ. eigenvalues --   -0.47123  -0.46410  -0.45681  -0.45257  -0.44640
 Alpha  occ. eigenvalues --   -0.44158  -0.43278  -0.43173  -0.41054  -0.41015
 Alpha  occ. eigenvalues --   -0.40045  -0.39376  -0.37876  -0.37671  -0.37535
 Alpha  occ. eigenvalues --   -0.37192  -0.36696  -0.36618  -0.35207  -0.34875
 Alpha  occ. eigenvalues --   -0.34281  -0.30145  -0.29348  -0.28096  -0.27854
 Alpha  occ. eigenvalues --   -0.25245  -0.23490
 Alpha virt. eigenvalues --   -0.12090  -0.08147  -0.06401  -0.04638  -0.03263
 Alpha virt. eigenvalues --   -0.03177  -0.01445  -0.00729  -0.00197   0.00234
 Alpha virt. eigenvalues --    0.00816   0.01609   0.01681   0.02067   0.02100

 Mulliken charges:
               1
     1  C    0.159249
     2  C    0.312629
     3  C   -0.045878
     4  H    0.146729
     5  C    0.297017
     6  C    0.170691
     7  H    0.159588
     8  H    0.134947
     9  C   -0.369937
    10  C   -0.150442
    11  N   -0.388054
    12  C   -0.103140
    13  N   -0.398067
    14  N   -0.035276
    15  N   -0.060297
    16  C    0.134641
    17  C   -0.020313
    18  C   -0.489334
    19  C    0.311471
    20  C    0.203374
    21  C   -0.152458
    22  C    0.051628
    23  C   -0.138154
    24  C   -0.108477
    25  C   -0.275545
    26  H    0.145248
    27  H    0.116656
    28  H    0.132558
    29  H    0.098293
    30  H    0.116733
    31  H    0.147597
    32  O   -0.488256
    33  H    0.384579
 Sum of Mulliken charges =   0.00000

 Dipole moment (field-independent basis, Debye):
    X=             10.5038    Y=             -1.4162    Z=              0.0000  Tot=             10.5989
 Quadrupole moment (field-independent basis, Debye-Ang):
   XX=           -174.0306   YY=           -118.3569   ZZ=           -135.9369
   XY=             25.5957   XZ=              0.0001   YZ=             -0.0001

  Exact polarizability: 529.108  11.799 279.525   0.000   0.000 113.116
 Approx polarizability: 778.121  52.274 509.489  -0.001   0.001 176.528

                      1                      2                      3
                      A                      A                      A
 Frequencies --     11.5479                33.0800                49.9814
 Red. masses --      6.5540                 8.2316                 7.6036
 Frc consts  --      0.0005                 0.0053                 0.0112
 IR Inten    --      1.3015                 0.3119                 0.5545

                      4                      5                      6
                      A                      A                      A
 Frequencies --     65.1512               111.2077               125.8001
 Red. masses --      7.2400                12.2344                 5.6785
 Frc consts  --      0.0181                 0.0891                 0.0529
 IR Inten    --      0.9513                 0.9846                 0.7000

                      7                      8                      9
                      A                      A                      A
 Frequencies --    133.0497               135.7197               157.2807
 Red. masses --      4.3524                 9.0007                 7.1859
 Frc consts  --      0.0454                 0.0977                 0.1047
 IR Inten    --      0.3758                 2.5450                12.3207

                     10                     11                     12
                      A                      A                      A
 Frequencies --    195.2450               195.4713               221.4105
 Red. masses --      5.0416                 9.2721                 7.7222
 Frc consts  --      0.1132                 0.2087                 0.2230
 IR Inten    --      1.5632                 6.8770                 0.0330

                     13                     14                     15
                      A                      A                      A
 Frequencies --    267.4446               302.1309               302.3216
 Red. masses --      6.1923                 7.8807                 5.6484
 Frc consts  --      0.2610                 0.4238                 0.3042
 IR Inten    --      2.1841                 0.3952                 7.9446

                     16                     17                     18
                      A                      A                      A
 Frequencies --    390.7432               393.4292               407.4822
 Red. masses --      2.6974                 1.5951                 9.9120
 Frc consts  --      0.2426                 0.1455                 0.9697
 IR Inten    --     37.0787                65.1954                 4.7072

                     19                     20                     21
                      A                      A                      A
 Frequencies --    423.1509               437.3151               442.5755
 Red. masses --      5.2609                 2.6457                 7.8548
 Frc consts  --      0.5550                 0.2981                 0.9065
 IR Inten    --      0.4645                 5.9263                22.2088

                     22                     23                     24
                      A                      A                      A
 Frequencies --    461.9847               474.0966               483.9500
 Red. masses --     10.3880                 4.3793                 7.0770
 Frc consts  --      1.3063                 0.5800                 0.9766
 IR Inten    --      8.6569                 0.0009                 5.1065

                     25                     26                     27
                      A                      A                      A
 Frequencies --    491.1602               517.1155               548.7074
 Red. masses --      3.9002                 9.7580                 5.2721
 Frc consts  --      0.5544                 1.5374                 0.9352
 IR Inten    --      0.8101                 4.7025                13.4640

                     28                     29                     30
                      A                      A                      A
 Frequencies --    556.1882               588.1076               613.6822
 Red. masses --      5.7783                 6.6411                 7.3030
 Frc consts  --      1.0532                 1.3533                 1.6205
 IR Inten    --      1.6433                 2.6457                 1.9528

                     31                     32                     33
                      A                      A                      A
 Frequencies --    621.5875               644.7886               654.7330
 Red. masses --      3.3020                 6.1893                 3.2629
 Frc consts  --      0.7517                 1.5161                 0.8241
 IR Inten    --      1.2208                 3.3374                 0.0501

                     34                     35                     36
                      A                      A                      A
 Frequencies --    666.4218               717.5708               733.6879
 Red. masses --      4.1534                 5.7921                 6.8309
 Frc consts  --      1.0868                 1.7572                 2.1665
 IR Inten    --      1.1971                 0.7306                 0.9922

                     37                     38                     39
                      A                      A                      A
 Frequencies --    746.7344               756.6858               784.7939
 Red. masses --      4.5716                 7.5985                 1.7161
 Frc consts  --      1.5019                 2.5633                 0.6227
 IR Inten    --      0.0520                 5.8410                63.1209

                     40                     41                     42
                      A                      A                      A
 Frequencies --    794.5611               801.5173               834.9125
 Red. masses --      2.5636                 5.1526                 1.5555
 Frc consts  --      0.9536                 1.9503                 0.6388
 IR Inten    --     19.5196                 5.9452                25.1147

                     43                     44                     45
                      A                      A                      A
 Frequencies --    852.5064               864.6602               900.5284
 Red. masses --      7.4891                 1.4506                 1.4674
 Frc consts  --      3.2068                 0.6390                 0.7011
 IR Inten    --     13.6423                31.6792                 0.0506

                     46                     47                     48
                      A                      A                      A
 Frequencies --    939.9181               961.4083               980.0910
 Red. masses --      1.4475                 1.3648                 4.0697
 Frc consts  --      0.7534                 0.7432                 2.3033
 IR Inten    --     12.6936                 2.0137                 2.0962

                     49                     50                     51
                      A                      A                      A
 Frequencies --    988.0204               992.2401              1019.3319
 Red. masses --      1.3463                 1.3499                 1.3026
 Frc consts  --      0.7743                 0.7831                 0.7974
 IR Inten    --      0.4068                 0.9481                 0.2916

                     52                     53                     54
                      A                      A                      A
 Frequencies --   1052.3328              1078.5163              1091.1957
 Red. masses --      3.1505                 2.7066                 2.7554
 Frc consts  --      2.0556                 1.8550                 1.9331
 IR Inten    --     28.9209                94.7570                 6.5911

                     55                     56                     57
                      A                      A                      A
 Frequencies --   1108.5287              1165.1722              1168.2434
 Red. masses --      2.7552                 1.7974                 1.3954
 Frc consts  --      1.9948                 1.4377                 1.1221
 IR Inten    --     98.9123                86.8178                10.8230

                     58                     59                     60
                      A                      A                      A
 Frequencies --   1184.0881              1194.8793              1206.2107
 Red. masses --      1.2604                 1.4292                 2.4388
 Frc consts  --      1.0412                 1.2022                 2.0906
 IR Inten    --     31.5147                38.1980                68.8113

                     61                     62                     63
                      A                      A                      A
 Frequencies --   1218.4472              1231.1390              1265.4449
 Red. masses --      1.5543                 2.4964                 2.2866
 Frc consts  --      1.3596                 2.2293                 2.1574
 IR Inten    --    201.7491                40.1534                 6.5396

                     64                     65                     66
                      A                      A                      A
 Frequencies --   1284.1409              1304.0992              1319.4058
 Red. masses --      1.7031                 2.8293                 2.0495
 Frc consts  --      1.6547                 2.8350                 2.1021
 IR Inten    --     83.2608               149.5208                72.1289

                     67                     68                     69
                      A                      A                      A
 Frequencies --   1343.6124              1380.8876              1404.3247
 Red. masses --      9.1301                 7.9642                 5.4498
 Frc consts  --      9.7113                 8.9477                 6.3323
 IR Inten    --     14.5139                20.1177               198.5627

                     70                     71                     72
                      A                      A                      A
 Frequencies --   1423.1689              1438.0558              1470.5987
 Red. masses --      3.3877                 3.4771                 2.4313
 Frc consts  --      4.0427                 4.2366                 3.0980
 IR Inten    --    167.4205                 8.5618                98.9815

                     73                     74                     75
                      A                      A                      A
 Frequencies --   1490.3524              1506.8606              1514.9617
 Red. masses --      2.5214                 3.7931                 3.4628
 Frc consts  --      3.2996                 5.0744                 4.6825
 IR Inten    --    233.4998               399.9326                86.1262

                     76                     77                     78
                      A                      A                      A
 Frequencies --   1566.8216              1602.1084              1622.0031
 Red. masses --      4.3765                 7.0905                 6.6704
 Frc consts  --      6.3302                10.7229                10.3396
 IR Inten    --     21.5254                 4.3805               265.1373

                     79                     80                     81
                      A                      A                      A
 Frequencies --   1628.1769              1636.6491              1661.5505
 Red. masses --      5.7105                 6.3473                 6.0402
 Frc consts  --      8.9193                10.0173                 9.8249
 IR Inten    --      6.8865                35.6884                19.6816

                     82                     83                     84
                      A                      A                      A
 Frequencies --   2332.5021              2339.2868              3182.6303
 Red. masses --     12.6779                12.6805                 1.0905
 Frc consts  --     40.6390                40.8839                 6.5082
 IR Inten    --     59.1435                12.1520                22.5147

                     85                     86                     87
                      A                      A                      A
 Frequencies --   3188.2762              3203.8731              3211.7226
 Red. masses --      1.0878                 1.0930                 1.0889
 Frc consts  --      6.5149                 6.6103                 6.6178
 IR Inten    --      5.3148                16.4555                 1.1392

                     88                     89                     90
                      A                      A                      A
 Frequencies --   3219.6612              3225.2851              3228.7396
 Red. masses --      1.0925                 1.0956                 1.0936
 Frc consts  --      6.6728                 6.7150                 6.7172
 IR Inten    --      1.3242                 1.7225                 5.8838

                     91                     92                     93
                      A                      A                      A
 Frequencies --   3243.1541              3278.5750              3820.3730
 Red. masses --      1.0912                 1.0917                 1.0663
 Frc consts  --      6.7622                 6.9139                 9.1693
 IR Inten    --      2.6847                 9.6041               166.8231

 - Thermochemistry -
 -------------------
 Temperature   298.150 Kelvin.  Pressure   1.00000 Atm.
 Atom     1 has atomic number  6 and mass  12.00000

 Molecular mass:   298.08546 amu.
 Principal axes and moments of inertia in atomic units:
                           1         2         3
     Eigenvalues --  2647.46838********************
           X            1.00000   0.00239   0.00000
           Y           -0.00239   1.00000   0.00000
           Z            0.00000   0.00000   1.00000
 This molecule is an asymmetric top.
 Rotational symmetry number  1.
 Warning -- assumption of classical behavior for rotation
           may cause significant error
 Rotational temperatures (Kelvin)      0.03272     0.00514     0.00444
 Rotational constants (GHZ):           0.68169     0.10703     0.09250
 Zero-point vibrational energy     627018.4 (Joules/Mol)
                                  149.86099 (Kcal/Mol)
 Warning -- explicit consideration of  30 degrees of freedom as
           vibrations may cause significant error
 Vibrational temperatures:     16.61    47.59    71.91    93.74   160.00
          (Kelvin)            181.00   191.43   195.27   226.29   280.91
                              281.24   318.56   384.79   434.70   434.97
                              562.19   566.06   586.28   608.82   629.20
                              636.77   664.69   682.12   696.30   706.67
                              744.01   789.47   800.23   846.15   882.95
                              894.32   927.71   942.01   958.83  1032.42
                             1055.61  1074.38  1088.70  1129.14  1143.19
                             1153.20  1201.25  1226.57  1244.05  1295.66
                             1352.33  1383.25  1410.13  1421.54  1427.61
                             1466.59  1514.07  1551.74  1569.99  1594.92
                             1676.42  1680.84  1703.64  1719.16  1735.47
                             1753.07  1771.33  1820.69  1847.59  1876.31
                             1898.33  1933.16  1986.79  2020.51  2047.62
                             2069.04  2115.86  2144.28  2168.03  2179.69
                             2254.30  2305.07  2333.70  2342.58  2354.77
                             2390.60  3355.95  3365.71  4579.09  4587.21
                             4609.65  4620.95  4632.37  4640.46  4645.43
                             4666.17  4717.13  5496.66

 Zero-point correction=                           0.238819 (Hartree/Particle)
 Thermal correction to Energy=                    0.257069
 Thermal correction to Enthalpy=                  0.258013
 Thermal correction to Gibbs Free Energy=         0.190484
 Sum of electronic and zero-point Energies=           -985.896838
 Sum of electronic and thermal Energies=              -985.878588
 Sum of electronic and thermal Enthalpies=            -985.877643
 Sum of electronic and thermal Free Energies=         -985.945173

                     E (Thermal)             CV                S
                      KCal/Mol        Cal/Mol-Kelvin    Cal/Mol-Kelvin
 Total                  161.313             71.162            142.127
 Electronic               0.000              0.000              0.000
 Translational            0.889              2.981             42.974
 Rotational               0.889              2.981             35.120
 Vibrational            159.536             65.200             64.033
 Vibration     1          0.593              1.987              7.725
 Vibration     2          0.594              1.983              5.636
 Vibration     3          0.595              1.978              4.818
 Vibration     4          0.597              1.971              4.295
 Vibration     5          0.607              1.940              3.248
 Vibration     6          0.611              1.927              3.009
 Vibration     7          0.613              1.920              2.901
 Vibration     8          0.614              1.918              2.863
 Vibration     9          0.621              1.894              2.582
 Vibration    10          0.636              1.847              2.177
 Vibration    11          0.636              1.846              2.175
 Vibration    12          0.648              1.808              1.948
 Vibration    13          0.673              1.733              1.613
 Vibration    14          0.694              1.670              1.405
 Vibration    15          0.694              1.669              1.404
 Vibration    16          0.758              1.490              0.997
 Vibration    17          0.761              1.484              0.987
 Vibration    18          0.772              1.454              0.936
 Vibration    19          0.785              1.420              0.881
 Vibration    20          0.798              1.389              0.835
 Vibration    21          0.802              1.377              0.819
 Vibration    22          0.820              1.334              0.760
 Vibration    23          0.831              1.308              0.726
 Vibration    24          0.840              1.286              0.699
 Vibration    25          0.847              1.270              0.681
 Vibration    26          0.872              1.212              0.617
 Vibration    27          0.904              1.143              0.547
 Vibration    28          0.912              1.126              0.531
 Vibration    29          0.945              1.057              0.471
 Vibration    30          0.973              1.003              0.427

 Normal termination of Gaussian 09 at Sat Feb  5 15:18:17 2022.
