 Gaussian 09, Revision D.01,
 Gaussian 09:  EM64L-G09RevD.01 24-Apr-2013

 -----------------------------------------------------
 #P b3lyp/gen opt(tight) integral(Grid=ultrafine) freq
 -----------------------------------------------------

  from Gaussian 09/GAMESS https://www.basissetexchange.org/basis/6-31++
 g_st__st_/format/gaussian94/?version=1&elements=1,6,7,8
 ----------------------------------------------------------------------
 Symbolic Z-matrix:
 Charge =  0 Multiplicity = 1

 SCF Done:  E(RB3LYP) =  -986.132818732     A.U. after   18 cycles
 SCF Done:  E(RB3LYP) =  -986.132792121     A.U. after   14 cycles
 SCF Done:  E(RB3LYP) =  -986.132800854     A.U. after   13 cycles
 SCF Done:  E(RB3LYP) =  -986.132805792     A.U. after   14 cycles
 SCF Done:  E(RB3LYP) =  -986.132808323     A.U. after   15 cycles
 SCF Done:  E(RB3LYP) =  -986.132809059     A.U. after   10 cycles
 SCF Done:  E(RB3LYP) =  -986.132809190     A.U. after   10 cycles
 SCF Done:  E(RB3LYP) =  -986.132809295     A.U. after   10 cycles
 SCF Done:  E(RB3LYP) =  -986.132809421     A.U. after   10 cycles
 SCF Done:  E(RB3LYP) =  -986.132809529     A.U. after   10 cycles
 SCF Done:  E(RB3LYP) =  -986.132809583     A.U. after   10 cycles
 SCF Done:  E(RB3LYP) =  -986.132809600     A.U. after   10 cycles
 SCF Done:  E(RB3LYP) =  -986.132809603     A.U. after    9 cycles
 SCF Done:  E(RB3LYP) =  -986.132809603     A.U. after    6 cycles
 Optimization completed.
    -- Stationary point found.
 Normal termination of Gaussian 09 at Sat Feb  5 15:37:05 2022.

 ------------------------------------------------------------------
 #P Geom=AllCheck Guess=TCheck SCRF=Check GenChk RB3LYP/ChkBas Freq
 ------------------------------------------------------------------

 6-31++G** 6-31G + diffuse and polarization functions on all atoms Data
  from Gaussian 09/GAMESS https://www.basissetexchange.org/basis/6-31++
 g_st__st_/format/gaussian94/?version=1&elements=1,6,7,8
 ----------------------------------------------------------------------
 Charge =  0 Multiplicity = 1

                         Standard orientation:
 ---------------------------------------------------------------------
 Center     Atomic      Atomic             Coordinates (Angstroms)
 Number     Number       Type             X           Y           Z
 ---------------------------------------------------------------------
      1          6           0       -4.554571   -0.632103    0.000001
      2          6           0       -3.891288    0.624171    0.000000
      3          6           0       -3.788701   -1.808293   -0.000002
      4          1           0       -4.294402   -2.767734   -0.000002
      5          6           0       -2.495933    0.681005   -0.000003
      6          6           0       -2.399226   -1.743178   -0.000006
      7          1           0       -1.987667    1.637170   -0.000003
      8          1           0       -1.803003   -2.649735   -0.000009
      9          6           0       -1.740543   -0.503811   -0.000005
     10          6           0       -4.637901    1.850422    0.000003
     11          7           0       -5.215195    2.860262    0.000006
     12          6           0       -5.983764   -0.719373    0.000005
     13          7           0       -7.142761   -0.825647    0.000008
     14          7           0       -0.323640   -0.553681   -0.000010
     15          7           0        0.227839    0.587441   -0.000002
     16          6           0        3.381205    2.394039   -0.000002
     17          6           0        2.036015    2.022620   -0.000001
     18          6           0        1.619299    0.687543   -0.000006
     19          6           0        2.618589   -0.361839   -0.000004
     20          6           0        4.007889    0.019436    0.000003
     21          6           0        4.357800    1.412796    0.000000
     22          6           0        5.005336   -0.989771    0.000011
     23          6           0        4.673910   -2.329126    0.000009
     24          6           0        3.316608   -2.705892   -0.000001
     25          6           0        2.316817   -1.750230   -0.000005
     26          1           0        6.061453   -0.729056    0.000023
     27          1           0        5.453913   -3.084193    0.000018
     28          1           0        3.049410   -3.758635   -0.000006
     29          1           0        1.279861   -2.048526   -0.000012
     30          1           0        3.678964    3.436574   -0.000004
     31          1           0        1.262139    2.782934    0.000003
     32          8           0        5.645233    1.839190   -0.000002
     33          1           0        6.264514    1.098559    0.000017
 ---------------------------------------------------------------------

 SCF Done:  E(RB3LYP) =  -986.132809603     A.U. after    2 cycles

 The electronic state is 1-A.
 Alpha  occ. eigenvalues --  -19.22564 -14.40732 -14.39854 -14.35865 -14.35862
 Alpha  occ. eigenvalues --  -10.29724 -10.27033 -10.26837 -10.25974 -10.24671
 Alpha  occ. eigenvalues --  -10.24609 -10.24593 -10.24121 -10.23862 -10.23793
 Alpha  occ. eigenvalues --  -10.23647 -10.23372 -10.23223 -10.22802 -10.22413
 Alpha  occ. eigenvalues --  -10.22103 -10.21649 -10.21309  -1.11049  -1.05504
 Alpha  occ. eigenvalues --   -0.93651  -0.92128  -0.91211  -0.90119  -0.86563
 Alpha  occ. eigenvalues --   -0.83831  -0.81036  -0.79890  -0.78078  -0.77427
 Alpha  occ. eigenvalues --   -0.72361  -0.68683  -0.67171  -0.66057  -0.64999
 Alpha  occ. eigenvalues --   -0.61444  -0.59811  -0.59200  -0.55607  -0.54286
 Alpha  occ. eigenvalues --   -0.53531  -0.52972  -0.51070  -0.49409  -0.47799
 Alpha  occ. eigenvalues --   -0.47241  -0.46508  -0.46037  -0.45280  -0.45111
 Alpha  occ. eigenvalues --   -0.43779  -0.43239  -0.43226  -0.41775  -0.41153
 Alpha  occ. eigenvalues --   -0.40136  -0.39867  -0.38394  -0.37885  -0.37694
 Alpha  occ. eigenvalues --   -0.37572  -0.36952  -0.36835  -0.35239  -0.34909
 Alpha  occ. eigenvalues --   -0.34327  -0.30479  -0.29426  -0.28533  -0.28313
 Alpha  occ. eigenvalues --   -0.25367  -0.23626
 Alpha virt. eigenvalues --   -0.12235  -0.08251  -0.06819  -0.05014  -0.03453
 Alpha virt. eigenvalues --   -0.03214  -0.01502  -0.00642  -0.00259   0.00200
 Alpha virt. eigenvalues --    0.00801   0.01393   0.01638   0.01997   0.02172

 Mulliken charges:
               1
     1  C    0.095288
     2  C    0.316412
     3  C   -0.054659
     4  H    0.147757
     5  C    0.387386
     6  C    0.167146
     7  H    0.162361
     8  H    0.134187
     9  C   -0.440054
    10  C   -0.120903
    11  N   -0.388901
    12  C   -0.101593
    13  N   -0.397210
    14  N   -0.022470
    15  N   -0.067313
    16  C   -0.037347
    17  C    0.117374
    18  C   -0.347739
    19  C    0.572771
    20  C    0.857543
    21  C   -0.578013
    22  C   -0.609896
    23  C    0.063571
    24  C   -0.043870
    25  C   -0.437747
    26  H    0.010476
    27  H    0.125414
    28  H    0.135556
    29  H    0.102051
    30  H    0.162609
    31  H    0.150745
    32  O   -0.441869
    33  H    0.380936
 Sum of Mulliken charges =   0.00000

 Dipole moment (field-independent basis, Debye):
    X=             10.8007    Y=             -4.1515    Z=              0.0000  Tot=             11.5711
 Quadrupole moment (field-independent basis, Debye-Ang):
   XX=           -167.5648   YY=           -128.5526   ZZ=           -135.8716
   XY=              8.9905   XZ=              0.0004   YZ=              0.0000

  Exact polarizability: 533.332   9.085 277.125   0.000   0.000 112.902
 Approx polarizability: 787.528  50.447 508.920   0.000   0.000 176.175

                      1                      2                      3
                      A                      A                      A
 Frequencies --     11.1240                33.0023                50.1861
 Red. masses --      6.6826                 7.8248                 7.7287
 Frc consts  --      0.0005                 0.0050                 0.0115
 IR Inten    --      0.5367                 0.1395                 0.3836

                      4                      5                      6
                      A                      A                      A
 Frequencies --     62.5598                92.4285               111.3769
 Red. masses --      6.2084                 2.8502                12.2297
 Frc consts  --      0.0143                 0.0143                 0.0894
 IR Inten    --      3.3654                 2.8620                 1.1984

                      7                      8                      9
                      A                      A                      A
 Frequencies --    126.7058               136.2359               156.3908
 Red. masses --      5.4598                 8.9284                 7.4306
 Frc consts  --      0.0516                 0.0976                 0.1071
 IR Inten    --      0.1458                 2.8775                 8.5902

                     10                     11                     12
                      A                      A                      A
 Frequencies --    193.5142               195.5398               217.6919
 Red. masses --      5.1993                 9.4469                 5.3394
 Frc consts  --      0.1147                 0.2128                 0.1491
 IR Inten    --      1.1017                 8.4771                 2.2389

                     13                     14                     15
                      A                      A                      A
 Frequencies --    268.8641               274.8187               301.3327
 Red. masses --      6.3130                 1.4868                 7.9872
 Frc consts  --      0.2689                 0.0662                 0.4273
 IR Inten    --      2.0722                72.3188                 0.0009

                     16                     17                     18
                      A                      A                      A
 Frequencies --    313.5128               391.2260               407.4788
 Red. masses --      5.4830                 5.6836                10.4487
 Frc consts  --      0.3175                 0.5125                 1.0222
 IR Inten    --      0.9738                 0.3718                14.3575

                     19                     20                     21
                      A                      A                      A
 Frequencies --    420.2954               428.3368               441.8078
 Red. masses --      5.4517                 2.7948                 7.2582
 Frc consts  --      0.5674                 0.3021                 0.8347
 IR Inten    --      0.0416                20.9152                 4.7256

                     22                     23                     24
                      A                      A                      A
 Frequencies --    462.0457               473.5987               479.4511
 Red. masses --     10.3680                 4.4184                 6.9949
 Frc consts  --      1.3041                 0.5839                 0.9474
 IR Inten    --      9.9244                 0.5621                 3.1225

                     25                     26                     27
                      A                      A                      A
 Frequencies --    490.0075               517.0962               548.8121
 Red. masses --      3.9261                 9.4248                 5.2558
 Frc consts  --      0.5554                 1.4848                 0.9327
 IR Inten    --      0.8870                 2.0460                14.1757

                     28                     29                     30
                      A                      A                      A
 Frequencies --    555.7348               585.9600               613.5604
 Red. masses --      6.0698                 6.3559                 7.6396
 Frc consts  --      1.1045                 1.2858                 1.6945
 IR Inten    --     16.5164                20.3298                 6.7776

                     31                     32                     33
                      A                      A                      A
 Frequencies --    614.5010               644.2453               644.7549
 Red. masses --      3.0584                 6.2795                 3.7669
 Frc consts  --      0.6804                 1.5356                 0.9226
 IR Inten    --      6.3878                11.9405                 0.0601

                     34                     35                     36
                      A                      A                      A
 Frequencies --    665.1651               716.6925               733.6312
 Red. masses --      4.0853                 5.9651                 6.8364
 Frc consts  --      1.0650                 1.8052                 2.1679
 IR Inten    --      0.0729                 2.9384                 1.0767

                     37                     38                     39
                      A                      A                      A
 Frequencies --    746.9190               758.4828               765.9170
 Red. masses --      4.4188                 7.5815                 1.6419
 Frc consts  --      1.4525                 2.5698                 0.5675
 IR Inten    --      0.5416                 8.7541                66.4193

                     40                     41                     42
                      A                      A                      A
 Frequencies --    780.0188               799.0556               852.4815
 Red. masses --      3.2522                 5.2089                 7.2106
 Frc consts  --      1.1658                 1.9595                 3.0874
 IR Inten    --      9.4214                 0.6057                 8.4435

                     43                     44                     45
                      A                      A                      A
 Frequencies --    859.1537               865.4137               873.8511
 Red. masses --      1.4256                 1.4629                 1.4862
 Frc consts  --      0.6200                 0.6455                 0.6687
 IR Inten    --      3.6734                50.9684                 0.2988

                     46                     47                     48
                      A                      A                      A
 Frequencies --    940.5322               967.6812               977.5152
 Red. masses --      1.4502                 1.3517                 1.3552
 Frc consts  --      0.7558                 0.7458                 0.7630
 IR Inten    --     13.6932                 0.2560                 0.5523

                     49                     50                     51
                      A                      A                      A
 Frequencies --    979.6713               987.8269              1019.8804
 Red. masses --      4.0319                 1.3465                 1.3024
 Frc consts  --      2.2799                 0.7741                 0.7982
 IR Inten    --      3.7270                 0.2988                 0.4878

                     52                     53                     54
                      A                      A                      A
 Frequencies --   1052.5608              1079.5060              1088.3811
 Red. masses --      3.3089                 2.0095                 3.4579
 Frc consts  --      2.1599                 1.3797                 2.4134
 IR Inten    --      6.7034                 1.3478                 2.2890

                     55                     56                     57
                      A                      A                      A
 Frequencies --   1108.0462              1165.4420              1171.6291
 Red. masses --      2.6729                 1.8173                 1.3321
 Frc consts  --      1.9335                 1.4543                 1.0774
 IR Inten    --     69.6933                75.2611               181.6306

                     58                     59                     60
                      A                      A                      A
 Frequencies --   1190.9894              1197.2756              1202.8300
 Red. masses --      1.5975                 1.2951                 1.6609
 Frc consts  --      1.3351                 1.0938                 1.4158
 IR Inten    --      7.0247                 2.8659               207.8696

                     61                     62                     63
                      A                      A                      A
 Frequencies --   1206.8969              1229.0993              1267.1663
 Red. masses --      2.1908                 2.6932                 2.4097
 Frc consts  --      1.8802                 2.3971                 2.2797
 IR Inten    --     41.7372               255.5651                29.6842

                     64                     65                     66
                      A                      A                      A
 Frequencies --   1290.5015              1301.5515              1320.1639
 Red. masses --      1.7879                 2.7481                 1.9918
 Frc consts  --      1.7543                 2.7429                 2.0453
 IR Inten    --     23.3379               149.9754                67.9010

                     67                     68                     69
                      A                      A                      A
 Frequencies --   1343.6410              1383.5573              1407.2497
 Red. masses --      8.7205                 7.6802                 3.9030
 Frc consts  --      9.2759                 8.6620                 4.5540
 IR Inten    --      7.4909                 1.7031                18.7275

                     70                     71                     72
                      A                      A                      A
 Frequencies --   1423.6043              1432.4915              1472.6324
 Red. masses --      3.2569                 3.5816                 2.7661
 Frc consts  --      3.8889                 4.3303                 3.5343
 IR Inten    --     33.9333               127.7231               248.1867

                     73                     74                     75
                      A                      A                      A
 Frequencies --   1483.0370              1502.8433              1514.9143
 Red. masses --      2.5858                 3.8786                 3.3438
 Frc consts  --      3.3508                 5.1612                 4.5213
 IR Inten    --     49.0019               626.8870                62.9333

                     76                     77                     78
                      A                      A                      A
 Frequencies --   1568.4032              1602.1249              1623.6148
 Red. masses --      4.0817                 7.0806                 6.7243
 Frc consts  --      5.9158                10.7081                10.4439
 IR Inten    --     35.9948                 3.4567               119.7584

                     79                     80                     81
                      A                      A                      A
 Frequencies --   1631.7999              1636.9060              1664.1274
 Red. masses --      5.4910                 6.3239                 5.6770
 Frc consts  --      8.6145                 9.9836                 9.2628
 IR Inten    --     80.4916                52.7642                21.2105

                     82                     83                     84
                      A                      A                      A
 Frequencies --   2332.5940              2339.5780              3159.6238
 Red. masses --     12.6779                12.6804                 1.0875
 Frc consts  --     40.6422                40.8939                 6.3963
 IR Inten    --     58.2777                11.7033                19.1088

                     85                     86                     87
                      A                      A                      A
 Frequencies --   3193.3068              3209.9789              3211.4532
 Red. masses --      1.0892                 1.0960                 1.0889
 Frc consts  --      6.5438                 6.6537                 6.6166
 IR Inten    --      8.9613                18.3376                 1.1602

                     88                     89                     90
                      A                      A                      A
 Frequencies --   3214.2349              3225.1515              3227.5375
 Red. masses --      1.0888                 1.0956                 1.0950
 Frc consts  --      6.6277                 6.7143                 6.7208
 IR Inten    --      2.3769                 1.8972                 4.2559

                     91                     92                     93
                      A                      A                      A
 Frequencies --   3243.1674              3276.6040              3835.8042
 Red. masses --      1.0912                 1.0918                 1.0655
 Frc consts  --      6.7624                 6.9065                 9.2366
 IR Inten    --      2.7503                11.3811               122.3360

 - Thermochemistry -
 -------------------
 Temperature   298.150 Kelvin.  Pressure   1.00000 Atm.
 Atom     1 has atomic number  6 and mass  12.00000

 Molecular mass:   298.08546 amu.
 Principal axes and moments of inertia in atomic units:
                           1         2         3
     Eigenvalues --  2663.48739********************
           X            1.00000   0.00020   0.00000
           Y           -0.00020   1.00000   0.00000
           Z            0.00000   0.00000   1.00000
 This molecule is an asymmetric top.
 Rotational symmetry number  1.
 Warning -- assumption of classical behavior for rotation
           may cause significant error
 Rotational temperatures (Kelvin)      0.03252     0.00514     0.00444
 Rotational constants (GHZ):           0.67759     0.10716     0.09253
 Zero-point vibrational energy     625563.8 (Joules/Mol)
                                  149.51334 (Kcal/Mol)
 Warning -- explicit consideration of  31 degrees of freedom as
           vibrations may cause significant error
 Vibrational temperatures:     16.00    47.48    72.21    90.01   132.98
          (Kelvin)            160.25   182.30   196.01   225.01   278.42
                              281.34   313.21   386.84   395.40   433.55
                              451.07   562.89   586.27   604.71   616.28
                              635.66   664.78   681.40   689.82   705.01
                              743.99   789.62   799.58   843.06   882.78
                              884.13   926.92   927.66   957.02  1031.16
                             1055.53  1074.65  1091.29  1101.98  1122.27
                             1149.66  1226.53  1236.13  1245.14  1257.28
                             1353.21  1392.28  1406.42  1409.53  1421.26
                             1467.38  1514.40  1553.17  1565.94  1594.23
                             1676.81  1685.71  1713.57  1722.61  1730.60
                             1736.45  1768.40  1823.17  1856.74  1872.64
                             1899.42  1933.20  1990.63  2024.72  2048.25
                             2061.03  2118.79  2133.76  2162.25  2179.62
                             2256.58  2305.10  2336.02  2347.79  2355.14
                             2394.31  3356.08  3366.13  4545.99  4594.45
                             4618.44  4620.56  4624.56  4640.27  4643.70
                             4666.19  4714.30  5518.86

 Zero-point correction=                           0.238265 (Hartree/Particle)
 Thermal correction to Energy=                    0.256764
 Thermal correction to Enthalpy=                  0.257708
 Thermal correction to Gibbs Free Energy=         0.189452
 Sum of electronic and zero-point Energies=           -985.894545
 Sum of electronic and thermal Energies=              -985.876046
 Sum of electronic and thermal Enthalpies=            -985.875101
 Sum of electronic and thermal Free Energies=         -985.943357

                     E (Thermal)             CV                S
                      KCal/Mol        Cal/Mol-Kelvin    Cal/Mol-Kelvin
 Total                  161.122             71.570            143.656
 Electronic               0.000              0.000              0.000
 Translational            0.889              2.981             42.974
 Rotational               0.889              2.981             35.124
 Vibrational            159.344             65.609             65.558
 Vibration     1          0.593              1.987              7.799
 Vibration     2          0.594              1.983              5.640
 Vibration     3          0.595              1.978              4.810
 Vibration     4          0.597              1.972              4.375
 Vibration     5          0.602              1.955              3.608
 Vibration     6          0.607              1.940              3.245
 Vibration     7          0.611              1.926              2.995
 Vibration     8          0.614              1.917              2.856
 Vibration     9          0.620              1.896              2.593
 Vibration    10          0.635              1.849              2.194
 Vibration    11          0.636              1.846              2.175
 Vibration    12          0.646              1.814              1.978
 Vibration    13          0.673              1.730              1.604
 Vibration    14          0.677              1.720              1.566
 Vibration    15          0.693              1.671              1.409
 Vibration    16          0.701              1.648              1.344
 Vibration    17          0.759              1.489              0.995
 Vibration    18          0.772              1.454              0.936
 Vibration    19          0.783              1.426              0.891
 Vibration    20          0.790              1.409              0.864
 Vibration    21          0.802              1.379              0.821
 Vibration    22          0.820              1.334              0.760
 Vibration    23          0.830              1.309              0.728
 Vibration    24          0.836              1.296              0.712
 Vibration    25          0.846              1.272              0.684
 Vibration    26          0.872              1.212              0.617
 Vibration    27          0.904              1.142              0.547
 Vibration    28          0.911              1.127              0.532
 Vibration    29          0.943              1.062              0.474
 Vibration    30          0.973              1.003              0.427
 Vibration    31          0.974              1.001              0.425

 Optimization completed.
    -- Stationary point found.
 Normal termination of Gaussian 09 at Sat Feb  5 16:13:38 2022.
