 Gaussian 03, Revision D.02,
 Gaussian 03:  EM64T-G03RevD.02  1-Mar-2006

 ----------------------------------------------------
 #P b3lyp/gen opt=tight integral(Grid=ultrafine) freq
 ----------------------------------------------------

 6-31++G** 6-31G + diffuse and polarization functions on all atoms Data
  from Gaus
 ----------------------------------------------------------------------
 Symbolic Z-matrix:
 Charge =  0 Multiplicity = 1

 SCF Done:  E(RB+HF-LYP) =  -986.131341411     A.U. after   22 cycles
 SCF Done:  E(RB+HF-LYP) =  -986.137304996     A.U. after   22 cycles
 SCF Done:  E(RB+HF-LYP) =  -986.137947608     A.U. after   16 cycles
 SCF Done:  E(RB+HF-LYP) =  -986.138051602     A.U. after   14 cycles
 SCF Done:  E(RB+HF-LYP) =  -986.138070147     A.U. after   17 cycles
 SCF Done:  E(RB+HF-LYP) =  -986.138070668     A.U. after   27 cycles
 SCF Done:  E(RB+HF-LYP) =  -986.138070792     A.U. after   16 cycles
 SCF Done:  E(RB+HF-LYP) =  -986.138070806     A.U. after   37 cycles
 SCF Done:  E(RB+HF-LYP) =  -986.138070812     A.U. after   46 cycles
 SCF Done:  E(RB+HF-LYP) =  -986.138070808     A.U. after   32 cycles
 SCF Done:  E(RB+HF-LYP) =  -986.138070800     A.U. after   13 cycles
 SCF Done:  E(RB+HF-LYP) =  -986.138070807     A.U. after   15 cycles
 SCF Done:  E(RB+HF-LYP) =  -986.138070796     A.U. after   12 cycles
 SCF Done:  E(RB+HF-LYP) =  -986.138070810     A.U. after   25 cycles
 SCF Done:  E(RB+HF-LYP) =  -986.138070796     A.U. after   15 cycles
 SCF Done:  E(RB+HF-LYP) =  -986.138070806     A.U. after   13 cycles
 SCF Done:  E(RB+HF-LYP) =  -986.138070796     A.U. after   14 cycles
 SCF Done:  E(RB+HF-LYP) =  -986.138070816     A.U. after   23 cycles
 SCF Done:  E(RB+HF-LYP) =  -986.138070806     A.U. after    6 cycles
 Optimization completed on the basis of negligible forces.
    -- Stationary point found.
 Normal termination of Gaussian 03 at Tue Jan 18 11:32:15 2022.

 ----------------------------------------------------------------
 #P Geom=AllCheck Guess=Read SCRF=Check GenChk RB3LYP/ChkBas Freq
 ----------------------------------------------------------------

  from Gaus
 ----------------------------------------------------------------------
 Redundant internal coordinates taken from checkpoint file:
 2c.chk
 Charge =  0 Multiplicity = 1

                         Standard orientation:
 ---------------------------------------------------------------------
 Center     Atomic     Atomic              Coordinates (Angstroms)
 Number     Number      Type              X           Y           Z
 ---------------------------------------------------------------------
    1          6             0       -4.494046    0.750406    0.000032
    2          6             0       -4.226743   -0.640815   -0.000020
    3          6             0       -3.416233    1.656012    0.000074
    4          1             0       -3.627342    2.720226    0.000115
    5          6             0       -2.901583   -1.091050   -0.000027
    6          6             0       -2.104853    1.202130    0.000066
    7          1             0       -2.684259   -2.153375   -0.000065
    8          1             0       -1.277459    1.901150    0.000100
    9          6             0       -1.836551   -0.180542    0.000013
   10          6             0       -5.292406   -1.601334   -0.000065
   11          7             0       -6.135315   -2.402902   -0.000104
   12          6             0       -5.835131    1.251691    0.000043
   13          7             0       -6.912399    1.692227    0.000054
   14          7             0       -0.547130   -0.760580    0.000003
   15          7             0        0.405191    0.072842    0.000010
   16          6             0        3.276293   -2.314881    0.000006
   17          6             0        1.963219   -1.833066    0.000010
   18          6             0        1.697687   -0.464190    0.000004
   19          6             0        2.788552    0.476579   -0.000005
   20          6             0        4.133488   -0.016312   -0.000010
   21          6             0        4.345926   -1.427639   -0.000003
   22          6             0        5.222404    0.896247   -0.000020
   23          6             0        4.992192    2.255259   -0.000026
   24          6             0        3.665589    2.748424   -0.000022
   25          6             0        2.590827    1.882701   -0.000012
   26          1             0        6.233037    0.504291   -0.000023
   27          1             0        5.827545    2.948970   -0.000034
   28          1             0        3.491811    3.820762   -0.000027
   29          1             0        1.576769    2.262555   -0.000009
   30          1             0        3.460387   -3.386888    0.000012
   31          1             0        1.129187   -2.525352    0.000018
   32          8             0        5.638582   -1.848349   -0.000007
   33          1             0        5.677440   -2.814381   -0.000003
 ---------------------------------------------------------------------

 SCF Done:  E(RB+HF-LYP) =  -986.138070803     A.U. after    7 cycles

 The electronic state is 1-A.
 Alpha  occ. eigenvalues --  -19.22550 -14.40880 -14.40198 -14.36084 -14.36058
 Alpha  occ. eigenvalues --  -10.29454 -10.27203 -10.27077 -10.26189 -10.24813
 Alpha  occ. eigenvalues --  -10.24785 -10.24301 -10.24180 -10.24027 -10.23423
 Alpha  occ. eigenvalues --  -10.23008 -10.22623 -10.22582 -10.22371 -10.21440
 Alpha  occ. eigenvalues --  -10.21362 -10.21204 -10.21006  -1.10912  -1.05895
 Alpha  occ. eigenvalues --   -0.93867  -0.92328  -0.91168  -0.90026  -0.85744
 Alpha  occ. eigenvalues --   -0.83879  -0.81193  -0.79978  -0.77697  -0.75978
 Alpha  occ. eigenvalues --   -0.72403  -0.68884  -0.66420  -0.66002  -0.64442
 Alpha  occ. eigenvalues --   -0.62282  -0.60128  -0.57638  -0.55865  -0.54477
 Alpha  occ. eigenvalues --   -0.52871  -0.52622  -0.50354  -0.49363  -0.47735
 Alpha  occ. eigenvalues --   -0.46553  -0.46361  -0.45703  -0.45298  -0.45253
 Alpha  occ. eigenvalues --   -0.44400  -0.43394  -0.43242  -0.41876  -0.41007
 Alpha  occ. eigenvalues --   -0.39821  -0.39453  -0.38061  -0.37883  -0.37756
 Alpha  occ. eigenvalues --   -0.36972  -0.36704  -0.36491  -0.35455  -0.35076
 Alpha  occ. eigenvalues --   -0.34230  -0.30409  -0.29563  -0.28198  -0.27737
 Alpha  occ. eigenvalues --   -0.25911  -0.23170
 Alpha virt. eigenvalues --   -0.12642  -0.07906  -0.06244  -0.05023  -0.03995
 Alpha virt. eigenvalues --   -0.03176  -0.01534  -0.00727  -0.00122   0.00021
 Alpha virt. eigenvalues --    0.00765   0.01594   0.01845   0.01930   0.02106

 Mulliken atomic charges:
              1
     1  C    0.419157
     2  C    0.167220
     3  C    0.142048
     4  H    0.156872
     5  C    0.474750
     6  C    0.168868
     7  H    0.158530
     8  H    0.126020
     9  C   -0.825236
    10  C   -0.066236
    11  N   -0.395627
    12  C   -0.221513
    13  N   -0.386503
    14  N    0.053142
    15  N   -0.110053
    16  C    0.097836
    17  C   -0.008085
    18  C   -0.435450
    19  C    0.207281
    20  C    0.082976
    21  C    0.077443
    22  C    0.215248
    23  C   -0.236061
    24  C   -0.364571
    25  C   -0.141457
    26  H    0.146106
    27  H    0.114530
    28  H    0.132903
    29  H    0.090642
    30  H    0.110992
    31  H    0.155694
    32  O   -0.491866
    33  H    0.384398
 Sum of Mulliken charges=   0.00000

 Dipole moment (field-independent basis, Debye):
    X=    10.5095    Y=    -0.0738    Z=     0.0001  Tot=    10.5098
 Quadrupole moment (field-independent basis, Debye-Ang):
   XX=  -183.9319   YY=  -118.1117   ZZ=  -135.8489
   XY=   -15.0350   XZ=    -0.0005   YZ=    -0.0002

  Exact polarizability: 553.208  -7.183 273.220   0.000   0.002 113.017
 Approx polarizability: 810.967 -27.654 483.469   0.000   0.004 175.961

                     1                      2                      3
                     A                      A                      A
 Frequencies --    11.1434                33.2776                46.6681
 Red. masses --     6.4345                 8.4293                 7.2167
 Frc consts  --     0.0005                 0.0055                 0.0093
 IR Inten    --     1.6242                 0.6428                 1.6996

                     4                      5                      6
                     A                      A                      A
 Frequencies --    74.0841               112.8483               113.2923
 Red. masses --     6.4917                13.2347                 6.1634
 Frc consts  --     0.0210                 0.0993                 0.0466
 IR Inten    --     1.7190                 1.2816                 0.2722

                     7                      8                      9
                     A                      A                      A
 Frequencies --   136.9781               139.5041               162.8448
 Red. masses --     4.7278                 8.5592                 5.4130
 Frc consts  --     0.0523                 0.0981                 0.0846
 IR Inten    --     0.5501                 4.2929                12.7571

                    10                     11                     12
                     A                      A                      A
 Frequencies --   178.7131               191.1141               233.3769
 Red. masses --     6.9602                 8.0524                 6.5506
 Frc consts  --     0.1310                 0.1733                 0.2102
 IR Inten    --     0.1264                 0.5385                 8.8978

                    13                     14                     15
                     A                      A                      A
 Frequencies --   236.7900               291.6021               307.0392
 Red. masses --     6.7317                 7.8190                 5.8913
 Frc consts  --     0.2224                 0.3917                 0.3272
 IR Inten    --     1.6230                 0.0964                 8.1434

                    16                     17                     18
                     A                      A                      A
 Frequencies --   381.0373               393.0900               399.7889
 Red. masses --     2.5445                 1.6840                 3.7218
 Frc consts  --     0.2177                 0.1533                 0.3505
 IR Inten    --    37.4488                59.9029                 9.6787

                    19                     20                     21
                     A                      A                      A
 Frequencies --   408.6086               432.2639               442.2809
 Red. masses --    11.3681                 2.8625                 7.1712
 Frc consts  --     1.1183                 0.3151                 0.8265
 IR Inten    --    22.1695                 1.6306                 9.6027

                    22                     23                     24
                     A                      A                      A
 Frequencies --   461.3651               464.2901               486.2479
 Red. masses --     4.3740                11.0468                 7.2233
 Frc consts  --     0.5486                 1.4030                 1.0062
 IR Inten    --     0.0151                19.8832                 2.1357

                    25                     26                     27
                     A                      A                      A
 Frequencies --   489.8521               510.0100               551.1706
 Red. masses --     4.1790                10.1407                 5.0042
 Frc consts  --     0.5908                 1.5541                 0.8957
 IR Inten    --     0.9129                 1.0421                13.6722

                    28                     29                     30
                     A                      A                      A
 Frequencies --   556.4700               585.2001               615.1861
 Red. masses --     5.9093                 5.9800                 3.2443
 Frc consts  --     1.0781                 1.2066                 0.7234
 IR Inten    --     2.3904                 8.4234                 0.9641

                    31                     32                     33
                     A                      A                      A
 Frequencies --   628.4461               648.7852               653.6909
 Red. masses --     6.6473                 3.3777                 6.5649
 Frc consts  --     1.5468                 0.8377                 1.6528
 IR Inten    --    10.9144                 0.0334                 0.0668

                    34                     35                     36
                     A                      A                      A
 Frequencies --   667.1246               719.8480               733.0411
 Red. masses --     4.2378                 5.9599                 6.7435
 Frc consts  --     1.1112                 1.8196                 2.1350
 IR Inten    --     1.2568                 1.6128                 1.1790

                    37                     38                     39
                     A                      A                      A
 Frequencies --   751.0273               754.5408               784.9101
 Red. masses --     4.3903                 7.5505                 1.4069
 Frc consts  --     1.4590                 2.5327                 0.5107
 IR Inten    --     0.1351                 6.9417                79.3018

                    40                     41                     42
                     A                      A                      A
 Frequencies --   790.4030               800.9612               835.3631
 Red. masses --     3.7492                 5.5852                 1.5390
 Frc consts  --     1.3800                 2.1111                 0.6328
 IR Inten    --     0.7645                 2.9103                25.5660

                    43                     44                     45
                     A                      A                      A
 Frequencies --   864.1343               886.8691               889.5330
 Red. masses --     1.4587                 6.3445                 1.5233
 Frc consts  --     0.6418                 2.9401                 0.7102
 IR Inten    --    27.2196                 4.4484                 0.0239

                    46                     47                     48
                     A                      A                      A
 Frequencies --   929.9330               968.2736               971.4258
 Red. masses --     1.4803                 1.3607                 4.3511
 Frc consts  --     0.7542                 0.7516                 2.4192
 IR Inten    --    16.6640                 1.2163                11.7451

                    49                     50                     51
                     A                      A                      A
 Frequencies --   985.2794               996.2750              1010.2663
 Red. masses --     1.3479                 1.3335                 1.3078
 Frc consts  --     0.7709                 0.7799                 0.7864
 IR Inten    --     0.8766                 0.1930                 0.0081

                    52                     53                     54
                     A                      A                      A
 Frequencies --  1040.7050              1063.4215              1078.7730
 Red. masses --     3.4438                 2.0882                 4.1967
 Frc consts  --     2.1976                 1.3913                 2.8775
 IR Inten    --    33.2482               119.3696                15.2282

                    55                     56                     57
                     A                      A                      A
 Frequencies --  1101.2647              1167.7043              1177.3480
 Red. masses --     2.2959                 1.3847                 1.3640
 Frc consts  --     1.6405                 1.1124                 1.1140
 IR Inten    --    25.1145                 9.9906               116.1825

                    58                     59                     60
                     A                      A                      A
 Frequencies --  1183.1950              1193.8899              1208.7107
 Red. masses --     1.3413                 1.4474                 2.3182
 Frc consts  --     1.1063                 1.2155                 1.9955
 IR Inten    --     1.8549                 6.0368               132.7448

                    61                     62                     63
                     A                      A                      A
 Frequencies --  1219.4434              1238.6634              1260.0747
 Red. masses --     1.5958                 3.1157                 2.2465
 Frc consts  --     1.3982                 2.8165                 2.1016
 IR Inten    --   126.6126               138.5537                 3.0948

                    64                     65                     66
                     A                      A                      A
 Frequencies --  1285.0374              1299.5571              1317.8752
 Red. masses --     1.9672                 2.3219                 2.3540
 Frc consts  --     1.9139                 2.3104                 2.4088
 IR Inten    --   157.7350                70.6990                62.8009

                    67                     68                     69
                     A                      A                      A
 Frequencies --  1349.4172              1377.8782              1411.1770
 Red. masses --     9.6904                 5.3359                 9.1244
 Frc consts  --    10.3964                 5.9687                10.7058
 IR Inten    --    21.2314               587.1067               139.1237

                    70                     71                     72
                     A                      A                      A
 Frequencies --  1431.2286              1432.0253              1475.0470
 Red. masses --     4.5852                 2.4593                 2.2795
 Frc consts  --     5.5338                 2.9714                 2.9222
 IR Inten    --     9.9577                 2.8929                60.6186

                    73                     74                     75
                     A                      A                      A
 Frequencies --  1483.3755              1511.9397              1527.0253
 Red. masses --     3.2420                 3.0795                 3.9311
 Frc consts  --     4.2031                 4.1476                 5.4008
 IR Inten    --   179.9192               150.3795                63.0516

                    76                     77                     78
                     A                      A                      A
 Frequencies --  1561.3065              1591.8579              1623.0865
 Red. masses --     4.1459                 7.8712                 7.3807
 Frc consts  --     5.9546                11.7517                11.4559
 IR Inten    --    68.2100                 5.9779               257.0194

                    79                     80                     81
                     A                      A                      A
 Frequencies --  1624.0486              1641.1252              1667.3897
 Red. masses --     5.6336                 6.2416                 6.2012
 Frc consts  --     8.7545                 9.9044                10.1577
 IR Inten    --    12.0826                29.1167                17.3218

                    82                     83                     84
                     A                      A                      A
 Frequencies --  2332.4076              2340.3708              3174.5469
 Red. masses --    12.6779                12.6791                 1.0905
 Frc consts  --    40.6356                40.9173                 6.4752
 IR Inten    --    55.6491                12.8021                26.8355

                    85                     86                     87
                     A                      A                      A
 Frequencies --  3188.4740              3203.4595              3213.5317
 Red. masses --     1.0874                 1.0921                 1.0909
 Frc consts  --     6.5136                 6.6032                 6.6373
 IR Inten    --     5.0773                15.5829                 1.6891

                    88                     89                     90
                     A                      A                      A
 Frequencies --  3227.2981              3227.4164              3229.3757
 Red. masses --     1.0937                 1.0923                 1.0915
 Frc consts  --     6.7119                 6.7033                 6.7067
 IR Inten    --     6.6862                 0.1888                 1.4830

                    91                     92                     93
                     A                      A                      A
 Frequencies --  3236.4526              3240.2934              3820.5718
 Red. masses --     1.0924                 1.0925                 1.0663
 Frc consts  --     6.7418                 6.7586                 9.1701
 IR Inten    --     4.1273                 2.0600               160.7410

 - Thermochemistry -
 -------------------
 Temperature   298.150 Kelvin.  Pressure   1.00000 Atm.
 Atom  1 has atomic number  6 and mass  12.00000

 Molecular mass:   298.08546 amu.
 Principal axes and moments of inertia in atomic units:
                           1         2         3
     EIGENVALUES --  2566.91166********************
           X            1.00000   0.00008   0.00000
           Y           -0.00008   1.00000  -0.00001
           Z            0.00000   0.00001   1.00000
 This molecule is an asymmetric top.
 Rotational symmetry number  1.
 Warning -- assumption of classical behavior for rotation
           may cause significant error
 Rotational temperatures (Kelvin)      0.03374     0.00485     0.00424
 Rotational constants (GHZ):           0.70308     0.10097     0.08829
 Zero-point vibrational energy     626209.5 (Joules/Mol)
                                  149.66767 (Kcal/Mol)
 Warning -- explicit consideration of  30 degrees of freedom as
           vibrations may cause significant error
 Vibrational temperatures:     16.03    47.88    67.14   106.59   162.36
          (Kelvin)            163.00   197.08   200.71   234.30   257.13
                              274.97   335.78   340.69   419.55   441.76
                              548.23   565.57   575.21   587.90   621.93
                              636.34   663.80   668.01   699.60   704.79
                              733.79   793.01   800.64   841.97   885.11
                              904.19   933.46   940.51   959.84  1035.70
                             1054.68  1080.56  1085.61  1129.31  1137.21
                             1152.40  1201.90  1243.30  1276.01  1279.84
                             1337.96  1393.13  1397.66  1417.60  1433.42
                             1453.55  1497.34  1530.02  1552.11  1584.47
                             1680.06  1693.94  1702.35  1717.74  1739.06
                             1754.50  1782.16  1812.96  1848.88  1869.77
                             1896.13  1941.51  1982.46  2030.37  2059.22
                             2060.36  2122.26  2134.24  2175.34  2197.05
                             2246.37  2290.33  2335.26  2336.64  2361.21
                             2399.00  3355.81  3367.27  4567.46  4587.50
                             4609.06  4623.55  4643.36  4643.53  4646.35
                             4656.53  4662.05  5496.94

 Zero-point correction=                           0.238511 (Hartree/Particle)
 Thermal correction to Energy=                    0.256857
 Thermal correction to Enthalpy=                  0.257801
 Thermal correction to Gibbs Free Energy=         0.190018
 Sum of electronic and zero-point Energies=           -985.899560
 Sum of electronic and thermal Energies=              -985.881214
 Sum of electronic and thermal Enthalpies=            -985.880270
 Sum of electronic and thermal Free Energies=         -985.948053

                     E (Thermal)             CV                S
                      KCal/Mol        Cal/Mol-Kelvin    Cal/Mol-Kelvin
 Total                  161.180             71.336            142.663
 Electronic               0.000              0.000              0.000
 Translational            0.889              2.981             42.974
 Rotational               0.889              2.981             35.193
 Vibrational            159.403             65.374             64.495
 Vibration  1             0.593              1.987              7.796
 Vibration  2             0.594              1.983              5.624
 Vibration  3             0.595              1.979              4.954
 Vibration  4             0.599              1.966              4.042
 Vibration  5             0.607              1.939              3.219
 Vibration  6             0.607              1.938              3.212
 Vibration  7             0.614              1.916              2.846
 Vibration  8             0.615              1.914              2.811
 Vibration  9             0.623              1.888              2.516
 Vibration 10             0.629              1.868              2.342
 Vibration 11             0.634              1.852              2.217
 Vibration 12             0.654              1.790              1.853
 Vibration 13             0.656              1.784              1.827
 Vibration 14             0.687              1.689              1.465
 Vibration 15             0.697              1.660              1.378
 Vibration 16             0.751              1.511              1.035
 Vibration 17             0.760              1.485              0.988
 Vibration 18             0.766              1.471              0.963
 Vibration 19             0.773              1.452              0.932
 Vibration 20             0.793              1.400              0.851
 Vibration 21             0.802              1.378              0.819
 Vibration 22             0.819              1.336              0.762
 Vibration 23             0.822              1.329              0.754
 Vibration 24             0.842              1.281              0.693
 Vibration 25             0.846              1.273              0.684
 Vibration 26             0.865              1.228              0.634
 Vibration 27             0.906              1.137              0.542
 Vibration 28             0.912              1.126              0.531
 Vibration 29             0.942              1.063              0.476
 Vibration 30             0.975              1.000              0.424

 Optimization completed on the basis of negligible forces.
    -- Stationary point found.
 Normal termination of Gaussian 03 at Tue Jan 18 14:17:53 2022.
